
#(C) 2018 by FIZ Karlsruhe - Leibniz Institute for Information Infrastructure.  All rights reserved.
data_8030-ICSD
_database_code_ICSD 8030
_audit_creation_date 1980-01-01
_audit_update_record 1984-10-23
_chemical_name_systematic 'Boron carbide (13/2) - prepared at 1273 K'
_chemical_formula_structural 'B13 C2'
_chemical_formula_sum 'C2 B13'
_chemical_name_structure_type B13C2
_exptl_crystal_density_diffrn 2.45
_publ_section_title

;
The nature of the chemical bonding in boron carbide, B13 C2. I. Structure
refinement
;
loop_
_citation_id
_citation_journal_full
_citation_year
_citation_journal_volume
_citation_page_first
_citation_page_last
_citation_journal_id_ASTM
primary

;
Acta Crystallographica, Section B: Structural Crystallography and Crystal
Chemistry
; 1979 35 1052 1059 ACBCAR
loop_
_publ_author_name
'Kirfel, A.'
'Gupta, A.'
'Will, G.'
_cell_length_a 5.633(1)
_cell_length_b 5.633(1)
_cell_length_c 12.164(2)
_cell_angle_alpha 90.
_cell_angle_beta 90.
_cell_angle_gamma 120.
_cell_volume 334.26
_cell_formula_units_Z 3
_symmetry_space_group_name_H-M 'R -3 m H'
_symmetry_Int_Tables_number 166
_refine_ls_R_factor_all 0.028
loop_
_symmetry_equiv_pos_site_id
_symmetry_equiv_pos_as_xyz
1 'x-y, -y, -z'
2 '-x, -x+y, -z'
3 'y, x, -z'
4 'x-y, x, -z'
5 'y, -x+y, -z'
6 '-x, -y, -z'
7 '-x+y, y, z'
8 'x, x-y, z'
9 '-y, -x, z'
10 '-x+y, -x, z'
11 '-y, x-y, z'
12 'x, y, z'
13 'x-y+2/3, -y+1/3, -z+1/3'
14 '-x+2/3, -x+y+1/3, -z+1/3'
15 'y+2/3, x+1/3, -z+1/3'
16 'x-y+2/3, x+1/3, -z+1/3'
17 'y+2/3, -x+y+1/3, -z+1/3'
18 '-x+2/3, -y+1/3, -z+1/3'
19 '-x+y+2/3, y+1/3, z+1/3'
20 'x+2/3, x-y+1/3, z+1/3'
21 '-y+2/3, -x+1/3, z+1/3'
22 '-x+y+2/3, -x+1/3, z+1/3'
23 '-y+2/3, x-y+1/3, z+1/3'
24 'x+2/3, y+1/3, z+1/3'
25 'x-y+1/3, -y+2/3, -z+2/3'
26 '-x+1/3, -x+y+2/3, -z+2/3'
27 'y+1/3, x+2/3, -z+2/3'
28 'x-y+1/3, x+2/3, -z+2/3'
29 'y+1/3, -x+y+2/3, -z+2/3'
30 '-x+1/3, -y+2/3, -z+2/3'
31 '-x+y+1/3, y+2/3, z+2/3'
32 'x+1/3, x-y+2/3, z+2/3'
33 '-y+1/3, -x+2/3, z+2/3'
34 '-x+y+1/3, -x+2/3, z+2/3'
35 '-y+1/3, x-y+2/3, z+2/3'
36 'x+1/3, y+2/3, z+2/3'
loop_
_atom_type_symbol
_atom_type_oxidation_number
B0+ 0
C0+ 0
loop_
_atom_site_label
_atom_site_type_symbol
_atom_site_symmetry_multiplicity
_atom_site_Wyckoff_symbol
_atom_site_fract_x
_atom_site_fract_y
_atom_site_fract_z
_atom_site_B_iso_or_equiv
_atom_site_occupancy
_atom_site_attached_hydrogens
B1 'B' 18 h 0.16310(17) -.16310(17) 0.64114(6) . 1. 0
B2 'B' 18 h 0.22555(16) -.22555(16) 0.78008(6) . 1. 0
B3 'B' 3 b 0 0 0.5 . 1. 0
C1 'C' 6 c 0 0 0.61747(2) . 1. 0
loop_
_atom_site_aniso_label
_atom_site_aniso_type_symbol
_atom_site_aniso_U_11
_atom_site_aniso_U_22
_atom_site_aniso_U_33
_atom_site_aniso_U_12
_atom_site_aniso_U_13
_atom_site_aniso_U_23
B1 'B' 0.0047(1) 0.0047(1) 0.0060(3) 0.00235(10) 0 0
B2 'B' 0.0051(1) 0.0051(1) 0.0049(7) 0.00255(10) 0 0
B3 'B' 0.0105(5) 0.0105(5) 0.0171(6) 0.00525(10) 0 0
C1 'C' 0.0044(2) 0.0044(2) 0.0135(6) 0.0022(2) 0 0
#End of TTdata_8030-ICSD
